       N       E                     dE             d eps       ncg     rms          rms(c)
DAV:   1     0.118267912901E+04    0.11827E+04   -0.10156E+05 39424   0.342E+02
DAV:   2    -0.262870902573E+03   -0.14456E+04   -0.13387E+04 51232   0.102E+02
DAV:   3    -0.390596884213E+03   -0.12773E+03   -0.12583E+03 53856   0.286E+01
DAV:   4    -0.399368952933E+03   -0.87721E+01   -0.87503E+01 62784   0.705E+00
DAV:   5    -0.399468842852E+03   -0.99890E-01   -0.99881E-01 58912   0.737E-01    0.355E+01
RMM:   6    -0.379583682373E+03    0.19885E+02   -0.14303E+01 45212   0.206E+00    0.168E+01
RMM:   7    -0.390430739026E+03   -0.10847E+02   -0.45249E+00 51783   0.127E+00    0.882E+00
RMM:   8    -0.394972371341E+03   -0.45416E+01   -0.10068E+00 50728   0.720E-01    0.423E+00
RMM:   9    -0.395956990318E+03   -0.98462E+00   -0.27955E-01 54509   0.429E-01    0.143E+00
RMM:  10    -0.396040419524E+03   -0.83429E-01   -0.10465E-01 60721   0.256E-01    0.575E-01
RMM:  11    -0.396044416214E+03   -0.39967E-02   -0.21445E-02 63346   0.115E-01    0.302E-01
RMM:  12    -0.396045215621E+03   -0.79941E-03   -0.34006E-03 60289   0.430E-02    0.982E-02
RMM:  13    -0.396045123705E+03    0.91915E-04   -0.82811E-04 64345   0.216E-02    0.318E-02
RMM:  14    -0.396045106788E+03    0.16917E-04   -0.18614E-04 67666   0.861E-03    0.176E-02
RMM:  15    -0.396045096349E+03    0.10439E-04   -0.26719E-05 56636   0.352E-03    0.788E-03
RMM:  16    -0.396045093344E+03    0.30056E-05   -0.61509E-06 44330   0.239E-03
   1 F= -.39604509E+03 E0= -.39604492E+03  d E =-.337279E-03  mag=     0.9954
