       N       E                     dE             d eps       ncg     rms          rms(c)
DAV:   1     0.118269173395E+04    0.11827E+04   -0.10156E+05 39424   0.342E+02
DAV:   2    -0.262830951402E+03   -0.14455E+04   -0.13388E+04 51232   0.102E+02
DAV:   3    -0.390588583794E+03   -0.12776E+03   -0.12585E+03 54176   0.286E+01
DAV:   4    -0.399371493316E+03   -0.87829E+01   -0.87614E+01 62656   0.705E+00
DAV:   5    -0.399470860460E+03   -0.99367E-01   -0.99358E-01 58880   0.737E-01    0.355E+01
RMM:   6    -0.379656397471E+03    0.19814E+02   -0.14316E+01 45214   0.206E+00    0.168E+01
RMM:   7    -0.390511705868E+03   -0.10855E+02   -0.45785E+00 51779   0.127E+00    0.882E+00
RMM:   8    -0.395058512414E+03   -0.45468E+01   -0.98973E-01 50691   0.718E-01    0.423E+00
RMM:   9    -0.396043285692E+03   -0.98477E+00   -0.27898E-01 54452   0.430E-01    0.142E+00
RMM:  10    -0.396128198866E+03   -0.84913E-01   -0.10632E-01 60733   0.257E-01    0.568E-01
RMM:  11    -0.396132173761E+03   -0.39749E-02   -0.21558E-02 63482   0.115E-01    0.302E-01
RMM:  12    -0.396133079816E+03   -0.90606E-03   -0.33600E-03 60266   0.425E-02    0.970E-02
RMM:  13    -0.396133011931E+03    0.67885E-04   -0.80486E-04 64762   0.211E-02    0.310E-02
RMM:  14    -0.396132999277E+03    0.12654E-04   -0.17832E-04 68290   0.840E-03    0.172E-02
RMM:  15    -0.396132991127E+03    0.81497E-05   -0.25110E-05 56258   0.346E-03
   1 F= -.39613299E+03 E0= -.39613268E+03  d E =-.630978E-03  mag=     0.9906
