       N       E                     dE             d eps       ncg     rms          rms(c)
DAV:   1     0.118336350632E+04    0.11834E+04   -0.10155E+05 39424   0.342E+02
DAV:   2    -0.261453638332E+03   -0.14448E+04   -0.13381E+04 51104   0.102E+02
DAV:   3    -0.389130568678E+03   -0.12768E+03   -0.12577E+03 54112   0.286E+01
DAV:   4    -0.397936161476E+03   -0.88056E+01   -0.87833E+01 62560   0.706E+00
DAV:   5    -0.398040696907E+03   -0.10454E+00   -0.10453E+00 59264   0.758E-01    0.354E+01
RMM:   6    -0.378847165834E+03    0.19194E+02   -0.14027E+01 45266   0.206E+00    0.168E+01
RMM:   7    -0.389730684780E+03   -0.10884E+02   -0.43455E+00 51834   0.125E+00    0.902E+00
RMM:   8    -0.394260720027E+03   -0.45300E+01   -0.10140E+00 50595   0.731E-01    0.455E+00
RMM:   9    -0.395268272108E+03   -0.10076E+01   -0.29092E-01 55123   0.435E-01    0.197E+00
RMM:  10    -0.395394154080E+03   -0.12588E+00   -0.12143E-01 58463   0.268E-01    0.233E+00
RMM:  11    -0.395404426973E+03   -0.10273E-01   -0.36167E-02 56757   0.148E-01    0.861E-01
RMM:  12    -0.395408825855E+03   -0.43989E-02   -0.10566E-02 61407   0.708E-02    0.635E-01
RMM:  13    -0.395407510787E+03    0.13151E-02   -0.23404E-03 57609   0.352E-02    0.247E-01
RMM:  14    -0.395407556789E+03   -0.46002E-04   -0.82767E-04 57874   0.199E-02    0.825E-02
RMM:  15    -0.395407485659E+03    0.71130E-04   -0.25149E-04 62435   0.104E-02    0.331E-02
RMM:  16    -0.395407467973E+03    0.17686E-04   -0.64503E-05 60213   0.497E-03    0.138E-02
RMM:  17    -0.395407461874E+03    0.60986E-05   -0.13631E-05 46634   0.271E-03
   1 F= -.39540746E+03 E0= -.39539576E+03  d E =-.234114E-01  mag=     0.9962
