 running on   32 total cores
 distrk:  each k-point on   32 cores,    1 groups
 distr:  one band on    1 cores,   32 groups
 using from now: INCAR     
 vasp.6.1.1 19Jun20 (build Feb 22 2021 16:38:43) complex                        
  
 POSCAR found type information on POSCAR S LiP S 
 POSCAR found :  4 types and      84 ions
 -----------------------------------------------------------------------------
|                                                                             |
|           W    W    AA    RRRRR   N    N  II  N    N   GGGG   !!!           |
|           W    W   A  A   R    R  NN   N  II  NN   N  G    G  !!!           |
|           W    W  A    A  R    R  N N  N  II  N N  N  G       !!!           |
|           W WW W  AAAAAA  RRRRR   N  N N  II  N  N N  G  GGG   !            |
|           WW  WW  A    A  R   R   N   NN  II  N   NN  G    G                |
|           W    W  A    A  R    R  N    N  II  N    N   GGGG   !!!           |
|                                                                             |
|     You use a magnetic or noncollinear calculation, but did not specify     |
|     the initial magnetic moment with the MAGMOM tag. Note that a            |
|     default of 1 will be used for all atoms. This ferromagnetic setup       |
|     may break the symmetry of the crystal, in particular it may rule        |
|     out finding an antiferromagnetic solution. Thence, we recommend         |
|     setting the initial magnetic moment manually or verifying carefully     |
|     that this magnetic setup is desired.                                    |
|                                                                             |
 -----------------------------------------------------------------------------

 scaLAPACK will be used
 -----------------------------------------------------------------------------
|                                                                             |
|           W    W    AA    RRRRR   N    N  II  N    N   GGGG   !!!           |
|           W    W   A  A   R    R  NN   N  II  NN   N  G    G  !!!           |
|           W    W  A    A  R    R  N N  N  II  N N  N  G       !!!           |
|           W WW W  AAAAAA  RRRRR   N  N N  II  N  N N  G  GGG   !            |
|           WW  WW  A    A  R   R   N   NN  II  N   NN  G    G                |
|           W    W  A    A  R    R  N    N  II  N    N   GGGG   !!!           |
|                                                                             |
|     For optimal performance we recommend to set                             |
|       NCORE = 4 - approx SQRT(number of cores).                             |
|     NCORE specifies how many cores store one orbital (NPAR=cpu/NCORE).      |
|     This setting can greatly improve the performance of VASP for DFT.       |
|     The default, NCORE=1 might be grossly inefficient on modern             |
|     multi-core architectures or massively parallel machines. Do your        |
|     own testing!!!!                                                         |
|     Unfortunately you need to use the default for GW and RPA                |
|     calculations (for HF NCORE is supported but not extensively tested      |
|     yet).                                                                   |
|                                                                             |
 -----------------------------------------------------------------------------

 LDA part: xc-table for Ceperly-Alder, standard interpolation
 POSCAR, INCAR and KPOINTS ok, starting setup
 FFT: planning ...
 WAVECAR not read
 entering main loop
       N       E                     dE             d eps       ncg     rms          rms(c)
DAV:   1     0.118286308590E+04    0.11829E+04   -0.10156E+05 39424   0.342E+02
DAV:   2    -0.262905815354E+03   -0.14458E+04   -0.13389E+04 51168   0.102E+02
DAV:   3    -0.390590729306E+03   -0.12768E+03   -0.12578E+03 54208   0.286E+01
DAV:   4    -0.399370437628E+03   -0.87797E+01   -0.87581E+01 62784   0.704E+00
DAV:   5    -0.399470123334E+03   -0.99686E-01   -0.99677E-01 59200   0.739E-01    0.355E+01
RMM:   6    -0.379646090907E+03    0.19824E+02   -0.14160E+01 45175   0.202E+00    0.168E+01
RMM:   7    -0.390521174314E+03   -0.10875E+02   -0.44659E+00 51889   0.125E+00    0.884E+00
RMM:   8    -0.395004537464E+03   -0.44834E+01   -0.94927E-01 50607   0.708E-01    0.430E+00
RMM:   9    -0.396018906469E+03   -0.10144E+01   -0.27643E-01 54644   0.421E-01    0.145E+00
RMM:  10    -0.396114202826E+03   -0.95296E-01   -0.10285E-01 60523   0.254E-01    0.617E-01
RMM:  11    -0.396119169992E+03   -0.49672E-02   -0.22618E-02 62270   0.118E-01    0.341E-01
RMM:  12    -0.396120764107E+03   -0.15941E-02   -0.35432E-03 61300   0.438E-02    0.128E-01
RMM:  13    -0.396120775408E+03   -0.11301E-04   -0.82207E-04 62141   0.220E-02    0.466E-02
RMM:  14    -0.396120740086E+03    0.35322E-04   -0.21747E-04 66527   0.985E-03    0.193E-02
RMM:  15    -0.396120732720E+03    0.73668E-05   -0.36965E-05 60815   0.404E-03
   1 F= -.39612073E+03 E0= -.39611678E+03  d E =-.791214E-02  mag=     0.8537
 Starting Core_Hole_Spec
 ZCORE=   10.0000000000000      ECORE=  -2393.17085973796     
 ZCORE=   10.0000000000000      ECORE=  -2393.17085973796     
 ZCORE=   10.0000000000000      ECORE=  -2393.17085973796     
 ZCORE=   10.0000000000000      ECORE=  -2393.17085973796     
 ZCORE=   10.0000000000000      ECORE=  -2393.17085973796     
 ZCORE=   10.0000000000000      ECORE=  -2393.17085973796     
 ZCORE=   10.0000000000000      ECORE=  -2393.17085973796     
 ZCORE=   10.0000000000000      ECORE=  -2393.17085973796     
 ZCORE=   10.0000000000000      ECORE=  -2393.17085973796     
 ZCORE=   10.0000000000000      ECORE=  -2393.17085973796     
 ZCORE=   10.0000000000000      ECORE=  -2393.17085973796     
 ZCORE=   10.0000000000000      ECORE=  -2393.17085973796     
 ZCORE=   10.0000000000000      ECORE=  -2393.17085973796     
 ZCORE=   10.0000000000000      ECORE=  -2393.17085973796     
 ZCORE=   10.0000000000000      ECORE=  -2393.17085973796     
 ZCORE=   10.0000000000000      ECORE=  -2393.17085973796     
 ZCORE=   10.0000000000000      ECORE=  -2393.17085973796     
 ZCORE=   10.0000000000000      ECORE=  -2393.17085973796     
 ZCORE=   10.0000000000000      ECORE=  -2393.17085973796     
 ZCORE=   10.0000000000000      ECORE=  -2393.17085973796     
 ZCORE=   10.0000000000000      ECORE=  -2393.17085973796     
 ZCORE=   10.0000000000000      ECORE=  -2393.17085973796     
 ZCORE=   10.0000000000000      ECORE=  -2393.17085973796     
 ZCORE=   10.0000000000000      ECORE=  -2393.17085973796     
 ZCORE=   10.0000000000000      ECORE=  -2393.17085973796     
 ZCORE=   10.0000000000000      ECORE=  -2393.17085973796     
 ZCORE=   10.0000000000000      ECORE=  -2393.17085973796     
 ZCORE=   10.0000000000000      ECORE=  -2393.17085973796     
 ZCORE=   10.0000000000000      ECORE=  -2393.17085973796     
 ZCORE=   10.0000000000000      ECORE=  -2393.17085973796     
 ZCORE=   10.0000000000000      ECORE=  -2393.17085973796     
 Ending Core_Hole_Spec
