       N       E                     dE             d eps       ncg     rms          rms(c)
DAV:   1     0.118232915151E+04    0.11823E+04   -0.10156E+05 39424   0.342E+02
DAV:   2    -0.263013072825E+03   -0.14453E+04   -0.13386E+04 51232   0.102E+02
DAV:   3    -0.390685447965E+03   -0.12767E+03   -0.12577E+03 53984   0.286E+01
DAV:   4    -0.399465698588E+03   -0.87803E+01   -0.87585E+01 63008   0.705E+00
DAV:   5    -0.399564484136E+03   -0.98786E-01   -0.98777E-01 59200   0.732E-01    0.355E+01
RMM:   6    -0.379696355343E+03    0.19868E+02   -0.14206E+01 45175   0.208E+00    0.168E+01
RMM:   7    -0.390569827842E+03   -0.10873E+02   -0.45414E+00 51805   0.127E+00    0.884E+00
RMM:   8    -0.395100889149E+03   -0.45311E+01   -0.10086E+00 50845   0.720E-01    0.424E+00
RMM:   9    -0.396089051764E+03   -0.98816E+00   -0.28333E-01 54559   0.430E-01    0.143E+00
RMM:  10    -0.396174245022E+03   -0.85193E-01   -0.10668E-01 60723   0.256E-01    0.583E-01
RMM:  11    -0.396178243044E+03   -0.39980E-02   -0.21259E-02 63368   0.114E-01    0.306E-01
RMM:  12    -0.396179057500E+03   -0.81446E-03   -0.33876E-03 60065   0.428E-02    0.100E-01
RMM:  13    -0.396178970566E+03    0.86934E-04   -0.82170E-04 64534   0.214E-02    0.328E-02
RMM:  14    -0.396178952793E+03    0.17772E-04   -0.18414E-04 67809   0.857E-03    0.177E-02
RMM:  15    -0.396178942881E+03    0.99118E-05   -0.26063E-05 56939   0.350E-03
   1 F= -.39617894E+03 E0= -.39617865E+03  d E =-.578582E-03  mag=     0.9909
