       N       E                     dE             d eps       ncg     rms          rms(c)
DAV:   1     0.118278937902E+04    0.11828E+04   -0.10156E+05 39424   0.342E+02
DAV:   2    -0.262869983359E+03   -0.14457E+04   -0.13389E+04 51168   0.102E+02
DAV:   3    -0.390599536855E+03   -0.12773E+03   -0.12582E+03 54240   0.286E+01
DAV:   4    -0.399370413378E+03   -0.87709E+01   -0.87493E+01 62560   0.704E+00
DAV:   5    -0.399470273116E+03   -0.99860E-01   -0.99851E-01 59104   0.738E-01    0.355E+01
RMM:   6    -0.379621599452E+03    0.19849E+02   -0.14169E+01 45191   0.205E+00    0.168E+01
RMM:   7    -0.390467133167E+03   -0.10846E+02   -0.45305E+00 51829   0.127E+00    0.882E+00
RMM:   8    -0.395011119377E+03   -0.45440E+01   -0.98351E-01 50807   0.715E-01    0.423E+00
RMM:   9    -0.395989004791E+03   -0.97789E+00   -0.27805E-01 54510   0.428E-01    0.143E+00
RMM:  10    -0.396074563267E+03   -0.85558E-01   -0.10534E-01 60631   0.257E-01    0.571E-01
RMM:  11    -0.396078508726E+03   -0.39455E-02   -0.21750E-02 63353   0.116E-01    0.305E-01
RMM:  12    -0.396079358752E+03   -0.85003E-03   -0.34250E-03 60398   0.428E-02    0.996E-02
RMM:  13    -0.396079266018E+03    0.92735E-04   -0.79486E-04 64279   0.212E-02    0.325E-02
RMM:  14    -0.396079246545E+03    0.19473E-04   -0.18306E-04 67916   0.861E-03    0.178E-02
RMM:  15    -0.396079235637E+03    0.10908E-04   -0.26153E-05 56992   0.353E-03    0.844E-03
RMM:  16    -0.396079231839E+03    0.37985E-05   -0.59462E-06 44449   0.239E-03
   1 F= -.39607923E+03 E0= -.39607886E+03  d E =-.752712E-03  mag=     0.9905
