 running on   32 total cores
 distrk:  each k-point on   32 cores,    1 groups
 distr:  one band on    1 cores,   32 groups
 using from now: INCAR     
 vasp.6.1.1 19Jun20 (build Feb 22 2021 16:38:43) complex                        
  
 POSCAR found type information on POSCAR S LiP S 
 POSCAR found :  4 types and      84 ions
 -----------------------------------------------------------------------------
|                                                                             |
|           W    W    AA    RRRRR   N    N  II  N    N   GGGG   !!!           |
|           W    W   A  A   R    R  NN   N  II  NN   N  G    G  !!!           |
|           W    W  A    A  R    R  N N  N  II  N N  N  G       !!!           |
|           W WW W  AAAAAA  RRRRR   N  N N  II  N  N N  G  GGG   !            |
|           WW  WW  A    A  R   R   N   NN  II  N   NN  G    G                |
|           W    W  A    A  R    R  N    N  II  N    N   GGGG   !!!           |
|                                                                             |
|     You use a magnetic or noncollinear calculation, but did not specify     |
|     the initial magnetic moment with the MAGMOM tag. Note that a            |
|     default of 1 will be used for all atoms. This ferromagnetic setup       |
|     may break the symmetry of the crystal, in particular it may rule        |
|     out finding an antiferromagnetic solution. Thence, we recommend         |
|     setting the initial magnetic moment manually or verifying carefully     |
|     that this magnetic setup is desired.                                    |
|                                                                             |
 -----------------------------------------------------------------------------

 scaLAPACK will be used
 -----------------------------------------------------------------------------
|                                                                             |
|           W    W    AA    RRRRR   N    N  II  N    N   GGGG   !!!           |
|           W    W   A  A   R    R  NN   N  II  NN   N  G    G  !!!           |
|           W    W  A    A  R    R  N N  N  II  N N  N  G       !!!           |
|           W WW W  AAAAAA  RRRRR   N  N N  II  N  N N  G  GGG   !            |
|           WW  WW  A    A  R   R   N   NN  II  N   NN  G    G                |
|           W    W  A    A  R    R  N    N  II  N    N   GGGG   !!!           |
|                                                                             |
|     For optimal performance we recommend to set                             |
|       NCORE = 4 - approx SQRT(number of cores).                             |
|     NCORE specifies how many cores store one orbital (NPAR=cpu/NCORE).      |
|     This setting can greatly improve the performance of VASP for DFT.       |
|     The default, NCORE=1 might be grossly inefficient on modern             |
|     multi-core architectures or massively parallel machines. Do your        |
|     own testing!!!!                                                         |
|     Unfortunately you need to use the default for GW and RPA                |
|     calculations (for HF NCORE is supported but not extensively tested      |
|     yet).                                                                   |
|                                                                             |
 -----------------------------------------------------------------------------

 LDA part: xc-table for Ceperly-Alder, standard interpolation
 POSCAR, INCAR and KPOINTS ok, starting setup
 FFT: planning ...
 WAVECAR not read
 entering main loop
       N       E                     dE             d eps       ncg     rms          rms(c)
DAV:   1     0.118258517607E+04    0.11826E+04   -0.10156E+05 39424   0.342E+02
DAV:   2    -0.263018356919E+03   -0.14456E+04   -0.13389E+04 51264   0.102E+02
DAV:   3    -0.390759408743E+03   -0.12774E+03   -0.12585E+03 53760   0.286E+01
DAV:   4    -0.399534804211E+03   -0.87754E+01   -0.87535E+01 62880   0.704E+00
DAV:   5    -0.399633190482E+03   -0.98386E-01   -0.98377E-01 58656   0.734E-01    0.355E+01
RMM:   6    -0.379758287621E+03    0.19875E+02   -0.14162E+01 45132   0.202E+00    0.168E+01
RMM:   7    -0.390608472281E+03   -0.10850E+02   -0.44959E+00 51925   0.126E+00    0.882E+00
RMM:   8    -0.395084232027E+03   -0.44758E+01   -0.96240E-01 50722   0.709E-01    0.431E+00
RMM:   9    -0.396098320778E+03   -0.10141E+01   -0.27666E-01 54622   0.423E-01    0.146E+00
RMM:  10    -0.396198495677E+03   -0.10017E+00   -0.10508E-01 60391   0.256E-01    0.615E-01
RMM:  11    -0.396203162187E+03   -0.46665E-02   -0.22897E-02 61986   0.119E-01    0.342E-01
RMM:  12    -0.396204828145E+03   -0.16660E-02   -0.36273E-03 61637   0.442E-02    0.131E-01
RMM:  13    -0.396204877086E+03   -0.48941E-04   -0.82680E-04 62375   0.219E-02    0.470E-02
RMM:  14    -0.396204843615E+03    0.33471E-04   -0.21895E-04 66367   0.989E-03    0.191E-02
RMM:  15    -0.396204837903E+03    0.57119E-05   -0.40416E-05 61010   0.419E-03
   1 F= -.39620484E+03 E0= -.39620180E+03  d E =-.607719E-02  mag=     0.9042
 Starting Core_Hole_Spec
 ZCORE=   10.0000000000000      ECORE=  -2393.17085973796     
 ZCORE=   10.0000000000000      ECORE=  -2393.17085973796     
 ZCORE=   10.0000000000000      ECORE=  -2393.17085973796     
 ZCORE=   10.0000000000000      ECORE=  -2393.17085973796     
 ZCORE=   10.0000000000000      ECORE=  -2393.17085973796     
 ZCORE=   10.0000000000000      ECORE=  -2393.17085973796     
 ZCORE=   10.0000000000000      ECORE=  -2393.17085973796     
 ZCORE=   10.0000000000000      ECORE=  -2393.17085973796     
 ZCORE=   10.0000000000000      ECORE=  -2393.17085973796     
 ZCORE=   10.0000000000000      ECORE=  -2393.17085973796     
 ZCORE=   10.0000000000000      ECORE=  -2393.17085973796     
 ZCORE=   10.0000000000000      ECORE=  -2393.17085973796     
 ZCORE=   10.0000000000000      ECORE=  -2393.17085973796     
 ZCORE=   10.0000000000000      ECORE=  -2393.17085973796     
 ZCORE=   10.0000000000000      ECORE=  -2393.17085973796     
 ZCORE=   10.0000000000000      ECORE=  -2393.17085973796     
 ZCORE=   10.0000000000000      ECORE=  -2393.17085973796     
 ZCORE=   10.0000000000000      ECORE=  -2393.17085973796     
 ZCORE=   10.0000000000000      ECORE=  -2393.17085973796     
 ZCORE=   10.0000000000000      ECORE=  -2393.17085973796     
 ZCORE=   10.0000000000000      ECORE=  -2393.17085973796     
 ZCORE=   10.0000000000000      ECORE=  -2393.17085973796     
 ZCORE=   10.0000000000000      ECORE=  -2393.17085973796     
 ZCORE=   10.0000000000000      ECORE=  -2393.17085973796     
 ZCORE=   10.0000000000000      ECORE=  -2393.17085973796     
 ZCORE=   10.0000000000000      ECORE=  -2393.17085973796     
 ZCORE=   10.0000000000000      ECORE=  -2393.17085973796     
 ZCORE=   10.0000000000000      ECORE=  -2393.17085973796     
 ZCORE=   10.0000000000000      ECORE=  -2393.17085973796     
 ZCORE=   10.0000000000000      ECORE=  -2393.17085973796     
 ZCORE=   10.0000000000000      ECORE=  -2393.17085973796     
 Ending Core_Hole_Spec
