 running on   32 total cores
 distrk:  each k-point on   32 cores,    1 groups
 distr:  one band on    1 cores,   32 groups
 using from now: INCAR     
 vasp.6.1.1 19Jun20 (build Feb 22 2021 16:38:43) complex                        
  
 POSCAR found type information on POSCAR S LiP S 
 POSCAR found :  4 types and      84 ions
 -----------------------------------------------------------------------------
|                                                                             |
|           W    W    AA    RRRRR   N    N  II  N    N   GGGG   !!!           |
|           W    W   A  A   R    R  NN   N  II  NN   N  G    G  !!!           |
|           W    W  A    A  R    R  N N  N  II  N N  N  G       !!!           |
|           W WW W  AAAAAA  RRRRR   N  N N  II  N  N N  G  GGG   !            |
|           WW  WW  A    A  R   R   N   NN  II  N   NN  G    G                |
|           W    W  A    A  R    R  N    N  II  N    N   GGGG   !!!           |
|                                                                             |
|     You use a magnetic or noncollinear calculation, but did not specify     |
|     the initial magnetic moment with the MAGMOM tag. Note that a            |
|     default of 1 will be used for all atoms. This ferromagnetic setup       |
|     may break the symmetry of the crystal, in particular it may rule        |
|     out finding an antiferromagnetic solution. Thence, we recommend         |
|     setting the initial magnetic moment manually or verifying carefully     |
|     that this magnetic setup is desired.                                    |
|                                                                             |
 -----------------------------------------------------------------------------

 scaLAPACK will be used
 -----------------------------------------------------------------------------
|                                                                             |
|           W    W    AA    RRRRR   N    N  II  N    N   GGGG   !!!           |
|           W    W   A  A   R    R  NN   N  II  NN   N  G    G  !!!           |
|           W    W  A    A  R    R  N N  N  II  N N  N  G       !!!           |
|           W WW W  AAAAAA  RRRRR   N  N N  II  N  N N  G  GGG   !            |
|           WW  WW  A    A  R   R   N   NN  II  N   NN  G    G                |
|           W    W  A    A  R    R  N    N  II  N    N   GGGG   !!!           |
|                                                                             |
|     For optimal performance we recommend to set                             |
|       NCORE = 4 - approx SQRT(number of cores).                             |
|     NCORE specifies how many cores store one orbital (NPAR=cpu/NCORE).      |
|     This setting can greatly improve the performance of VASP for DFT.       |
|     The default, NCORE=1 might be grossly inefficient on modern             |
|     multi-core architectures or massively parallel machines. Do your        |
|     own testing!!!!                                                         |
|     Unfortunately you need to use the default for GW and RPA                |
|     calculations (for HF NCORE is supported but not extensively tested      |
|     yet).                                                                   |
|                                                                             |
 -----------------------------------------------------------------------------

 LDA part: xc-table for Ceperly-Alder, standard interpolation
 POSCAR, INCAR and KPOINTS ok, starting setup
 FFT: planning ...
 WAVECAR not read
 entering main loop
       N       E                     dE             d eps       ncg     rms          rms(c)
DAV:   1     0.118257754379E+04    0.11826E+04   -0.10156E+05 39424   0.342E+02
DAV:   2    -0.262992468845E+03   -0.14456E+04   -0.13388E+04 51136   0.102E+02
DAV:   3    -0.390704996756E+03   -0.12771E+03   -0.12581E+03 53856   0.286E+01
DAV:   4    -0.399469115211E+03   -0.87641E+01   -0.87423E+01 62816   0.704E+00
DAV:   5    -0.399568640739E+03   -0.99526E-01   -0.99517E-01 58976   0.735E-01    0.355E+01
RMM:   6    -0.379591517172E+03    0.19977E+02   -0.14348E+01 45224   0.207E+00    0.168E+01
RMM:   7    -0.390455737567E+03   -0.10864E+02   -0.45303E+00 51765   0.126E+00    0.884E+00
RMM:   8    -0.394994058618E+03   -0.45383E+01   -0.99176E-01 50841   0.715E-01    0.423E+00
RMM:   9    -0.395973248959E+03   -0.97919E+00   -0.28010E-01 54571   0.429E-01    0.144E+00
RMM:  10    -0.396060132773E+03   -0.86884E-01   -0.10647E-01 60600   0.257E-01    0.582E-01
RMM:  11    -0.396064183225E+03   -0.40505E-02   -0.21871E-02 63254   0.116E-01    0.309E-01
RMM:  12    -0.396065071430E+03   -0.88820E-03   -0.34432E-03 60222   0.429E-02    0.102E-01
RMM:  13    -0.396064973989E+03    0.97441E-04   -0.81072E-04 64220   0.213E-02    0.327E-02
RMM:  14    -0.396064956304E+03    0.17685E-04   -0.18796E-04 68328   0.872E-03    0.177E-02
RMM:  15    -0.396064946256E+03    0.10047E-04   -0.25893E-05 57705   0.351E-03    0.830E-03
RMM:  16    -0.396064943026E+03    0.32304E-05   -0.53284E-06 44376   0.232E-03
   1 F= -.39606494E+03 E0= -.39606409E+03  d E =-.171133E-02  mag=     0.9769
 Starting Core_Hole_Spec
 ZCORE=   10.0000000000000      ECORE=  -2393.17085973796     
 ZCORE=   10.0000000000000      ECORE=  -2393.17085973796     
 ZCORE=   10.0000000000000      ECORE=  -2393.17085973796     
 ZCORE=   10.0000000000000      ECORE=  -2393.17085973796     
 ZCORE=   10.0000000000000      ECORE=  -2393.17085973796     
 ZCORE=   10.0000000000000      ECORE=  -2393.17085973796     
 ZCORE=   10.0000000000000      ECORE=  -2393.17085973796     
 ZCORE=   10.0000000000000      ECORE=  -2393.17085973796     
 ZCORE=   10.0000000000000      ECORE=  -2393.17085973796     
 ZCORE=   10.0000000000000      ECORE=  -2393.17085973796     
 ZCORE=   10.0000000000000      ECORE=  -2393.17085973796     
 ZCORE=   10.0000000000000      ECORE=  -2393.17085973796     
 ZCORE=   10.0000000000000      ECORE=  -2393.17085973796     
 ZCORE=   10.0000000000000      ECORE=  -2393.17085973796     
 ZCORE=   10.0000000000000      ECORE=  -2393.17085973796     
 ZCORE=   10.0000000000000      ECORE=  -2393.17085973796     
 ZCORE=   10.0000000000000      ECORE=  -2393.17085973796     
 ZCORE=   10.0000000000000      ECORE=  -2393.17085973796     
 ZCORE=   10.0000000000000      ECORE=  -2393.17085973796     
 ZCORE=   10.0000000000000      ECORE=  -2393.17085973796     
 ZCORE=   10.0000000000000      ECORE=  -2393.17085973796     
 ZCORE=   10.0000000000000      ECORE=  -2393.17085973796     
 ZCORE=   10.0000000000000      ECORE=  -2393.17085973796     
 ZCORE=   10.0000000000000      ECORE=  -2393.17085973796     
 ZCORE=   10.0000000000000      ECORE=  -2393.17085973796     
 ZCORE=   10.0000000000000      ECORE=  -2393.17085973796     
 ZCORE=   10.0000000000000      ECORE=  -2393.17085973796     
 ZCORE=   10.0000000000000      ECORE=  -2393.17085973796     
 ZCORE=   10.0000000000000      ECORE=  -2393.17085973796     
 ZCORE=   10.0000000000000      ECORE=  -2393.17085973796     
 ZCORE=   10.0000000000000      ECORE=  -2393.17085973796     
 Ending Core_Hole_Spec
