       N       E                     dE             d eps       ncg     rms          rms(c)
DAV:   1     0.118280357976E+04    0.11828E+04   -0.10156E+05 39424   0.342E+02
DAV:   2    -0.262932061673E+03   -0.14457E+04   -0.13389E+04 51168   0.102E+02
DAV:   3    -0.390616461894E+03   -0.12768E+03   -0.12578E+03 53888   0.286E+01
DAV:   4    -0.399395121961E+03   -0.87787E+01   -0.87568E+01 62656   0.705E+00
DAV:   5    -0.399494575063E+03   -0.99453E-01   -0.99444E-01 58624   0.738E-01    0.355E+01
RMM:   6    -0.379712397278E+03    0.19782E+02   -0.14122E+01 45173   0.199E+00    0.168E+01
RMM:   7    -0.390560714619E+03   -0.10848E+02   -0.44725E+00 51942   0.125E+00    0.880E+00
RMM:   8    -0.395060423792E+03   -0.44997E+01   -0.95310E-01 50701   0.706E-01    0.426E+00
RMM:   9    -0.396062408642E+03   -0.10020E+01   -0.27811E-01 54580   0.425E-01    0.143E+00
RMM:  10    -0.396151240833E+03   -0.88832E-01   -0.10364E-01 60723   0.255E-01    0.583E-01
RMM:  11    -0.396155435099E+03   -0.41943E-02   -0.21814E-02 63208   0.116E-01    0.319E-01
RMM:  12    -0.396156706370E+03   -0.12713E-02   -0.34155E-03 61090   0.429E-02    0.113E-01
RMM:  13    -0.396156681102E+03    0.25269E-04   -0.80427E-04 63058   0.215E-02    0.369E-02
RMM:  14    -0.396156664942E+03    0.16160E-04   -0.20869E-04 67534   0.936E-03    0.181E-02
RMM:  15    -0.396156659352E+03    0.55897E-05   -0.33408E-05 58787   0.380E-03
   1 F= -.39615666E+03 E0= -.39615476E+03  d E =-.379699E-02  mag=     0.9451
